# LAMMPS data file written by OVITO
2200 atoms
5 atom types
0.0 42.6240006 xlo xhi
0.0 135.348999 ylo yhi
-20.0 20.0 zlo zhi

Atoms # atomic

1 1 0.0 0.0 0.0
2 1 0.7104 1.23045 0.0
3 1 2.1312001 1.23045 0.0
4 1 2.8416 0.0 0.0
5 1 0.0 2.4609001 0.0
6 1 0.7104 3.69135 0.0
7 1 2.1312001 3.69135 0.0
8 1 2.8416 2.4609001 0.0
9 1 0.0 4.9218002 0.0
10 1 0.7104 6.1522398 0.0
11 1 2.1312001 6.1522398 0.0
12 1 2.8416 4.9218002 0.0
13 1 0.0 7.38269 0.0
14 1 0.7104 8.6131401 0.0
15 1 2.1312001 8.6131401 0.0
16 1 2.8416 7.38269 0.0
17 1 0.0 9.8435898 0.0
18 1 0.7104 11.0740004 0.0
19 1 2.1312001 11.0740004 0.0
20 1 2.8416 9.8435898 0.0
21 1 0.0 12.3044996 0.0
22 1 0.7104 13.5348997 0.0
23 1 2.1312001 13.5348997 0.0
24 1 2.8416 12.3044996 0.0
25 1 0.0 14.7654 0.0
26 1 0.7104 15.9958 0.0
27 1 2.1312001 15.9958 0.0
28 1 2.8416 14.7654 0.0
29 1 0.0 17.2262993 0.0
30 1 0.7104 18.4566994 0.0
31 1 2.1312001 18.4566994 0.0
32 1 2.8416 17.2262993 0.0
33 1 0.0 19.6872006 0.0
34 1 0.7104 20.9176006 0.0
35 1 2.1312001 20.9176006 0.0
36 1 2.8416 19.6872006 0.0
37 1 0.0 22.1480999 0.0
38 1 0.7104 23.3785 0.0
39 1 2.1312001 23.3785 0.0
40 1 2.8416 22.1480999 0.0
41 1 0.0 24.6089993 0.0
42 1 0.7104 25.8393994 0.0
43 1 2.1312001 25.8393994 0.0
44 1 2.8416 24.6089993 0.0
45 1 0.0 27.0699005 0.0
46 1 0.7104 28.3003006 0.0
47 1 2.1312001 28.3003006 0.0
48 1 2.8416 27.0699005 0.0
49 1 0.0 29.5307999 0.0
50 1 0.7104 30.7612 0.0
51 1 2.1312001 30.7612 0.0
52 1 2.8416 29.5307999 0.0
53 1 0.0 31.9916992 0.0
54 1 0.7104 33.2220993 0.0
55 1 2.1312001 33.2220993 0.0
56 1 2.8416 31.9916992 0.0
57 1 0.0 34.4525986 0.0
58 1 0.7104 35.6829987 0.0
59 1 2.1312001 35.6829987 0.0
60 1 2.8416 34.4525986 0.0
61 1 0.0 36.9135018 0.0
62 1 0.7104 38.1439018 0.0
63 1 2.1312001 38.1439018 0.0
64 1 2.8416 36.9135018 0.0
65 1 0.0 39.3744011 0.0
66 1 0.7104 40.6048012 0.0
67 1 2.1312001 40.6048012 0.0
68 1 2.8416 39.3744011 0.0
69 1 0.0 41.8353005 0.0
70 1 0.7104 43.0657005 0.0
71 1 2.1312001 43.0657005 0.0
72 1 2.8416 41.8353005 0.0
73 1 0.0 44.2961998 0.0
74 1 0.7104 45.5265999 0.0
75 1 2.1312001 45.5265999 0.0
76 1 2.8416 44.2961998 0.0
77 1 0.0 46.7570992 0.0
78 1 0.7104 47.9874992 0.0
79 1 2.1312001 47.9874992 0.0
80 1 2.8416 46.7570992 0.0
81 1 0.0 49.2179985 0.0
82 1 0.7104 50.4483986 0.0
83 1 2.1312001 50.4483986 0.0
84 1 2.8416 49.2179985 0.0
85 1 0.0 51.6789017 0.0
86 1 0.7104 52.9093018 0.0
87 1 2.1312001 52.9093018 0.0
88 1 2.8416 51.6789017 0.0
89 1 0.0 54.139801 0.0
90 1 0.7104 55.3702011 0.0
91 1 2.1312001 55.3702011 0.0
92 1 2.8416 54.139801 0.0
93 1 0.0 56.6006012 0.0
94 1 0.7104 57.8311005 0.0
95 1 2.1312001 57.8311005 0.0
96 1 2.8416 56.6006012 0.0
97 1 0.0 59.0615006 0.0
98 1 0.7104 60.2919998 0.0
99 1 2.1312001 60.2919998 0.0
100 1 2.8416 59.0615006 0.0
101 1 0.0 61.5223999 0.0
102 1 0.7104 62.7528992 0.0
103 1 2.1312001 62.7528992 0.0
104 1 2.8416 61.5223999 0.0
105 1 0.0 63.9832994 0.0
106 1 0.7104 65.2137985 0.0
107 1 2.1312001 65.2137985 0.0
108 1 2.8416 63.9832994 0.0
109 1 0.0 66.4441986 0.0
110 1 0.7104 67.6746979 0.0
111 1 2.1312001 67.6746979 0.0
112 1 2.8416 66.4441986 0.0
113 1 0.0 68.905098 0.0
114 1 0.7104 70.1355972 0.0
115 1 2.1312001 70.1355972 0.0
116 1 2.8416 68.905098 0.0
117 1 0.0 71.3659973 0.0
118 1 0.7104 72.5964966 0.0
119 1 2.1312001 72.5964966 0.0
120 1 2.8416 71.3659973 0.0
121 1 0.0 73.8268967 0.0
122 1 0.7104 75.0574036 0.0
123 1 2.1312001 75.0574036 0.0
124 1 2.8416 73.8268967 0.0
125 1 0.0 76.2878037 0.0
126 1 0.7104 77.5183029 0.0
127 1 2.1312001 77.5183029 0.0
128 1 2.8416 76.2878037 0.0
129 1 0.0 78.748703 0.0
130 1 0.7104 79.9792024 0.0
131 1 2.1312001 79.9792024 0.0
132 1 2.8416 78.748703 0.0
133 1 0.0 81.2096024 0.0
134 1 0.7104 82.4401016 0.0
135 1 2.1312001 82.4401016 0.0
136 1 2.8416 81.2096024 0.0
137 1 0.0 83.6705017 0.0
138 1 0.7104 84.901001 0.0
139 1 2.1312001 84.901001 0.0
140 1 2.8416 83.6705017 0.0
141 1 0.0 86.1314011 0.0
142 1 0.7104 87.3619003 0.0
143 1 2.1312001 87.3619003 0.0
144 1 2.8416 86.1314011 0.0
145 1 0.0 88.5923004 0.0
146 1 0.7104 89.8227997 0.0
147 1 2.1312001 89.8227997 0.0
148 1 2.8416 88.5923004 0.0
149 1 0.0 91.0531998 0.0
150 1 0.7104 92.283699 0.0
151 1 2.1312001 92.283699 0.0
152 1 2.8416 91.0531998 0.0
153 1 0.0 93.5140991 0.0
154 1 0.7104 94.7445984 0.0
155 1 2.1312001 94.7445984 0.0
156 1 2.8416 93.5140991 0.0
157 1 0.0 95.9749986 0.0
158 1 0.7104 97.2054977 0.0
159 1 2.1312001 97.2054977 0.0
160 1 2.8416 95.9749986 0.0
161 1 0.0 98.4358979 0.0
162 1 0.7104 99.6663971 0.0
163 1 2.1312001 99.6663971 0.0
164 1 2.8416 98.4358979 0.0
165 1 0.0 100.8970032 0.0
166 1 0.7104 102.1269989 0.0
167 1 2.1312001 102.1269989 0.0
168 1 2.8416 100.8970032 0.0
169 1 0.0 103.3580017 0.0
170 1 0.7104 104.5879975 0.0
171 1 2.1312001 104.5879975 0.0
172 1 2.8416 103.3580017 0.0
173 1 0.0 105.8190003 0.0
174 1 0.7104 107.0490036 0.0
175 1 2.1312001 107.0490036 0.0
176 1 2.8416 105.8190003 0.0
177 1 0.0 108.2799988 0.0
178 1 0.7104 109.5100022 0.0
179 1 2.1312001 109.5100022 0.0
180 1 2.8416 108.2799988 0.0
181 1 0.0 110.7399979 0.0
182 1 0.7104 111.9710008 0.0
183 1 2.1312001 111.9710008 0.0
184 1 2.8416 110.7399979 0.0
185 1 0.0 113.2009964 0.0
186 1 0.7104 114.4319992 0.0
187 1 2.1312001 114.4319992 0.0
188 1 2.8416 113.2009964 0.0
189 1 0.0 115.6620026 0.0
190 1 0.7104 116.8929978 0.0
191 1 2.1312001 116.8929978 0.0
192 1 2.8416 115.6620026 0.0
193 1 0.0 118.1230011 0.0
194 1 0.7104 119.3539963 0.0
195 1 2.1312001 119.3539963 0.0
196 1 2.8416 118.1230011 0.0
197 1 0.0 120.5839997 0.0
198 1 0.7104 121.814003 0.0
199 1 2.1312001 121.814003 0.0
200 1 2.8416 120.5839997 0.0
201 1 0.0 123.0449982 0.0
202 1 0.7104 124.2750015 0.0
203 1 2.1312001 124.2750015 0.0
204 1 2.8416 123.0449982 0.0
205 1 0.0 125.5059967 0.0
206 1 0.7104 126.7360001 0.0
207 1 2.1312001 126.7360001 0.0
208 1 2.8416 125.5059967 0.0
209 1 0.0 127.967003 0.0
210 1 0.7104 129.1970062 0.0
211 1 2.1312001 129.1970062 0.0
212 1 2.8416 127.967003 0.0
213 1 0.0 130.4279938 0.0
214 1 0.7104 131.6580048 0.0
215 1 2.1312001 131.6580048 0.0
216 1 2.8416 130.4279938 0.0
217 1 0.0 132.8880006 0.0
218 1 0.7104 134.1190033 0.0
219 1 2.1312001 134.1190033 0.0
220 1 2.8416 132.8880006 0.0
221 1 4.2624002 0.0 0.0
222 1 4.9727998 1.23045 0.0
223 1 6.3936 1.23045 0.0
224 1 7.1040001 0.0 0.0
225 1 4.2624002 2.4609001 0.0
226 1 4.9727998 3.69135 0.0
227 1 6.3936 3.69135 0.0
228 1 7.1040001 2.4609001 0.0
229 1 4.2624002 4.9218002 0.0
230 1 4.9727998 6.1522398 0.0
231 1 6.3936 6.1522398 0.0
232 1 7.1040001 4.9218002 0.0
233 1 4.2624002 7.38269 0.0
234 1 4.9727998 8.6131401 0.0
235 1 6.3936 8.6131401 0.0
236 1 7.1040001 7.38269 0.0
237 1 4.2624002 9.8435898 0.0
238 1 4.9727998 11.0740004 0.0
239 1 6.3936 11.0740004 0.0
240 1 7.1040001 9.8435898 0.0
241 1 4.2624002 12.3044996 0.0
242 1 4.9727998 13.5348997 0.0
243 1 6.3936 13.5348997 0.0
244 1 7.1040001 12.3044996 0.0
245 1 4.2624002 14.7654 0.0
246 1 4.9727998 15.9958 0.0
247 1 6.3936 15.9958 0.0
248 1 7.1040001 14.7654 0.0
249 1 4.2624002 17.2262993 0.0
250 1 4.9727998 18.4566994 0.0
251 1 6.3936 18.4566994 0.0
252 1 7.1040001 17.2262993 0.0
253 1 4.2624002 19.6872006 0.0
254 1 4.9727998 20.9176006 0.0
255 1 6.3936 20.9176006 0.0
256 1 7.1040001 19.6872006 0.0
257 1 4.2624002 22.1480999 0.0
258 1 4.9727998 23.3785 0.0
259 1 6.3936 23.3785 0.0
260 1 7.1040001 22.1480999 0.0
261 1 4.2624002 24.6089993 0.0
262 1 4.9727998 25.8393994 0.0
263 1 6.3936 25.8393994 0.0
264 1 7.1040001 24.6089993 0.0
265 1 4.2624002 27.0699005 0.0
266 1 4.9727998 28.3003006 0.0
267 1 6.3936 28.3003006 0.0
268 1 7.1040001 27.0699005 0.0
269 1 4.2624002 29.5307999 0.0
270 1 4.9727998 30.7612 0.0
271 1 6.3936 30.7612 0.0
272 1 7.1040001 29.5307999 0.0
273 1 4.2624002 31.9916992 0.0
274 1 4.9727998 33.2220993 0.0
275 1 6.3936 33.2220993 0.0
276 1 7.1040001 31.9916992 0.0
277 1 4.2624002 34.4525986 0.0
278 1 4.9727998 35.6829987 0.0
279 1 6.3936 35.6829987 0.0
280 1 7.1040001 34.4525986 0.0
281 1 4.2624002 36.9135018 0.0
282 1 4.9727998 38.1439018 0.0
283 1 6.3936 38.1439018 0.0
284 1 7.1040001 36.9135018 0.0
285 1 4.2624002 39.3744011 0.0
286 1 4.9727998 40.6048012 0.0
287 1 6.3936 40.6048012 0.0
288 1 7.1040001 39.3744011 0.0
289 1 4.2624002 41.8353005 0.0
290 1 4.9727998 43.0657005 0.0
291 1 6.3936 43.0657005 0.0
292 1 7.1040001 41.8353005 0.0
293 1 4.2624002 44.2961998 0.0
294 1 4.9727998 45.5265999 0.0
295 1 6.3936 45.5265999 0.0
296 1 7.1040001 44.2961998 0.0
297 1 4.2624002 46.7570992 0.0
298 1 4.9727998 47.9874992 0.0
299 1 6.3936 47.9874992 0.0
300 1 7.1040001 46.7570992 0.0
301 1 4.2624002 49.2179985 0.0
302 1 4.9727998 50.4483986 0.0
303 1 6.3936 50.4483986 0.0
304 1 7.1040001 49.2179985 0.0
305 1 4.2624002 51.6789017 0.0
306 1 4.9727998 52.9093018 0.0
307 1 6.3936 52.9093018 0.0
308 1 7.1040001 51.6789017 0.0
309 1 4.2624002 54.139801 0.0
310 1 4.9727998 55.3702011 0.0
311 1 6.3936 55.3702011 0.0
312 1 7.1040001 54.139801 0.0
313 1 4.2624002 56.6006012 0.0
314 1 4.9727998 57.8311005 0.0
315 1 6.3936 57.8311005 0.0
316 1 7.1040001 56.6006012 0.0
317 1 4.2624002 59.0615006 0.0
318 1 4.9727998 60.2919998 0.0
319 1 6.3936 60.2919998 0.0
320 1 7.1040001 59.0615006 0.0
321 1 4.2624002 61.5223999 0.0
322 1 4.9727998 62.7528992 0.0
323 1 6.3936 62.7528992 0.0
324 1 7.1040001 61.5223999 0.0
325 1 4.2624002 63.9832994 0.0
326 1 4.9727998 65.2137985 0.0
327 1 6.3936 65.2137985 0.0
328 1 7.1040001 63.9832994 0.0
329 1 4.2624002 66.4441986 0.0
330 1 4.9727998 67.6746979 0.0
331 1 6.3936 67.6746979 0.0
332 1 7.1040001 66.4441986 0.0
333 1 4.2624002 68.905098 0.0
334 1 4.9727998 70.1355972 0.0
335 1 6.3936 70.1355972 0.0
336 1 7.1040001 68.905098 0.0
337 1 4.2624002 71.3659973 0.0
338 1 4.9727998 72.5964966 0.0
339 1 6.3936 72.5964966 0.0
340 1 7.1040001 71.3659973 0.0
341 1 4.2624002 73.8268967 0.0
342 1 4.9727998 75.0574036 0.0
343 1 6.3936 75.0574036 0.0
344 1 7.1040001 73.8268967 0.0
345 1 4.2624002 76.2878037 0.0
346 1 4.9727998 77.5183029 0.0
347 1 6.3936 77.5183029 0.0
348 1 7.1040001 76.2878037 0.0
349 1 4.2624002 78.748703 0.0
350 1 4.9727998 79.9792024 0.0
351 1 6.3936 79.9792024 0.0
352 1 7.1040001 78.748703 0.0
353 1 4.2624002 81.2096024 0.0
354 1 4.9727998 82.4401016 0.0
355 1 6.3936 82.4401016 0.0
356 1 7.1040001 81.2096024 0.0
357 1 4.2624002 83.6705017 0.0
358 1 4.9727998 84.901001 0.0
359 1 6.3936 84.901001 0.0
360 1 7.1040001 83.6705017 0.0
361 1 4.2624002 86.1314011 0.0
362 1 4.9727998 87.3619003 0.0
363 1 6.3936 87.3619003 0.0
364 1 7.1040001 86.1314011 0.0
365 1 4.2624002 88.5923004 0.0
366 1 4.9727998 89.8227997 0.0
367 1 6.3936 89.8227997 0.0
368 1 7.1040001 88.5923004 0.0
369 1 4.2624002 91.0531998 0.0
370 1 4.9727998 92.283699 0.0
371 1 6.3936 92.283699 0.0
372 1 7.1040001 91.0531998 0.0
373 1 4.2624002 93.5140991 0.0
374 1 4.9727998 94.7445984 0.0
375 1 6.3936 94.7445984 0.0
376 1 7.1040001 93.5140991 0.0
377 1 4.2624002 95.9749986 0.0
378 1 4.9727998 97.2054977 0.0
379 1 6.3936 97.2054977 0.0
380 1 7.1040001 95.9749986 0.0
381 1 4.2624002 98.4358979 0.0
382 1 4.9727998 99.6663971 0.0
383 1 6.3936 99.6663971 0.0
384 1 7.1040001 98.4358979 0.0
385 1 4.2624002 100.8970032 0.0
386 1 4.9727998 102.1269989 0.0
387 1 6.3936 102.1269989 0.0
388 1 7.1040001 100.8970032 0.0
389 1 4.2624002 103.3580017 0.0
390 1 4.9727998 104.5879975 0.0
391 1 6.3936 104.5879975 0.0
392 1 7.1040001 103.3580017 0.0
393 1 4.2624002 105.8190003 0.0
394 1 4.9727998 107.0490036 0.0
395 1 6.3936 107.0490036 0.0
396 1 7.1040001 105.8190003 0.0
397 1 4.2624002 108.2799988 0.0
398 1 4.9727998 109.5100022 0.0
399 1 6.3936 109.5100022 0.0
400 1 7.1040001 108.2799988 0.0
401 1 4.2624002 110.7399979 0.0
402 1 4.9727998 111.9710008 0.0
403 1 6.3936 111.9710008 0.0
404 1 7.1040001 110.7399979 0.0
405 1 4.2624002 113.2009964 0.0
406 1 4.9727998 114.4319992 0.0
407 1 6.3936 114.4319992 0.0
408 1 7.1040001 113.2009964 0.0
409 1 4.2624002 115.6620026 0.0
410 1 4.9727998 116.8929978 0.0
411 1 6.3936 116.8929978 0.0
412 1 7.1040001 115.6620026 0.0
413 1 4.2624002 118.1230011 0.0
414 1 4.9727998 119.3539963 0.0
415 1 6.3936 119.3539963 0.0
416 1 7.1040001 118.1230011 0.0
417 1 4.2624002 120.5839997 0.0
418 1 4.9727998 121.814003 0.0
419 1 6.3936 121.814003 0.0
420 1 7.1040001 120.5839997 0.0
421 1 4.2624002 123.0449982 0.0
422 1 4.9727998 124.2750015 0.0
423 1 6.3936 124.2750015 0.0
424 1 7.1040001 123.0449982 0.0
425 1 4.2624002 125.5059967 0.0
426 1 4.9727998 126.7360001 0.0
427 1 6.3936 126.7360001 0.0
428 1 7.1040001 125.5059967 0.0
429 1 4.2624002 127.967003 0.0
430 1 4.9727998 129.1970062 0.0
431 1 6.3936 129.1970062 0.0
432 1 7.1040001 127.967003 0.0
433 1 4.2624002 130.4279938 0.0
434 1 4.9727998 131.6580048 0.0
435 1 6.3936 131.6580048 0.0
436 1 7.1040001 130.4279938 0.0
437 1 4.2624002 132.8880006 0.0
438 1 4.9727998 134.1190033 0.0
439 1 6.3936 134.1190033 0.0
440 1 7.1040001 132.8880006 0.0
441 1 8.5248003 0.0 0.0
442 1 9.2351999 1.23045 0.0
443 1 10.6560002 1.23045 0.0
444 1 11.3663998 0.0 0.0
445 1 8.5248003 2.4609001 0.0
446 1 9.2351999 3.69135 0.0
447 1 10.6560002 3.69135 0.0
448 1 11.3663998 2.4609001 0.0
449 1 8.5248003 4.9218002 0.0
450 1 9.2351999 6.1522398 0.0
451 1 10.6560002 6.1522398 0.0
452 1 11.3663998 4.9218002 0.0
453 1 8.5248003 7.38269 0.0
454 1 9.2351999 8.6131401 0.0
455 1 10.6560002 8.6131401 0.0
456 1 11.3663998 7.38269 0.0
457 1 8.5248003 9.8435898 0.0
458 1 9.2351999 11.0740004 0.0
459 1 10.6560002 11.0740004 0.0
460 1 11.3663998 9.8435898 0.0
461 1 8.5248003 12.3044996 0.0
462 1 9.2351999 13.5348997 0.0
463 1 10.6560002 13.5348997 0.0
464 1 11.3663998 12.3044996 0.0
465 1 8.5248003 14.7654 0.0
466 1 9.2351999 15.9958 0.0
467 1 10.6560002 15.9958 0.0
468 1 11.3663998 14.7654 0.0
469 1 8.5248003 17.2262993 0.0
470 1 9.2351999 18.4566994 0.0
471 1 10.6560002 18.4566994 0.0
472 1 11.3663998 17.2262993 0.0
473 1 8.5248003 19.6872006 0.0
474 1 9.2351999 20.9176006 0.0
475 1 10.6560002 20.9176006 0.0
476 1 11.3663998 19.6872006 0.0
477 1 8.5248003 22.1480999 0.0
478 1 9.2351999 23.3785 0.0
479 1 10.6560002 23.3785 0.0
480 1 11.3663998 22.1480999 0.0
481 1 8.5248003 24.6089993 0.0
482 1 9.2351999 25.8393994 0.0
483 1 10.6560002 25.8393994 0.0
484 1 11.3663998 24.6089993 0.0
485 1 8.5248003 27.0699005 0.0
486 1 9.2351999 28.3003006 0.0
487 1 10.6560002 28.3003006 0.0
488 1 11.3663998 27.0699005 0.0
489 1 8.5248003 29.5307999 0.0
490 1 9.2351999 30.7612 0.0
491 1 10.6560002 30.7612 0.0
492 1 11.3663998 29.5307999 0.0
493 1 8.5248003 31.9916992 0.0
494 1 9.2351999 33.2220993 0.0
495 1 10.6560002 33.2220993 0.0
496 1 11.3663998 31.9916992 0.0
497 1 8.5248003 34.4525986 0.0
498 1 9.2351999 35.6829987 0.0
499 1 10.6560002 35.6829987 0.0
500 1 11.3663998 34.4525986 0.0
501 1 8.5248003 36.9135018 0.0
502 1 9.2351999 38.1439018 0.0
503 1 10.6560002 38.1439018 0.0
504 1 11.3663998 36.9135018 0.0
505 1 8.5248003 39.3744011 0.0
506 1 9.2351999 40.6048012 0.0
507 1 10.6560002 40.6048012 0.0
508 1 11.3663998 39.3744011 0.0
509 1 8.5248003 41.8353005 0.0
510 1 9.2351999 43.0657005 0.0
511 1 10.6560002 43.0657005 0.0
512 1 11.3663998 41.8353005 0.0
513 1 8.5248003 44.2961998 0.0
514 1 9.2351999 45.5265999 0.0
515 1 10.6560002 45.5265999 0.0
516 1 11.3663998 44.2961998 0.0
517 1 8.5248003 46.7570992 0.0
518 1 9.2351999 47.9874992 0.0
519 1 10.6560002 47.9874992 0.0
520 1 11.3663998 46.7570992 0.0
521 1 8.5248003 49.2179985 0.0
522 1 9.2351999 50.4483986 0.0
523 1 10.6560002 50.4483986 0.0
524 1 11.3663998 49.2179985 0.0
525 1 8.5248003 51.6789017 0.0
526 1 9.2351999 52.9093018 0.0
527 1 10.6560002 52.9093018 0.0
528 1 11.3663998 51.6789017 0.0
529 1 8.5248003 54.139801 0.0
530 1 9.2351999 55.3702011 0.0
531 1 10.6560002 55.3702011 0.0
532 1 11.3663998 54.139801 0.0
533 1 8.5248003 56.6006012 0.0
534 1 9.2351999 57.8311005 0.0
535 1 10.6560002 57.8311005 0.0
536 1 11.3663998 56.6006012 0.0
537 1 8.5248003 59.0615006 0.0
538 1 9.2351999 60.2919998 0.0
539 1 10.6560002 60.2919998 0.0
540 1 11.3663998 59.0615006 0.0
541 1 8.5248003 61.5223999 0.0
542 1 9.2351999 62.7528992 0.0
543 1 10.6560002 62.7528992 0.0
544 1 11.3663998 61.5223999 0.0
545 1 8.5248003 63.9832994 0.0
546 1 9.2351999 65.2137985 0.0
547 1 10.6560002 65.2137985 0.0
548 1 11.3663998 63.9832994 0.0
549 1 8.5248003 66.4441986 0.0
550 1 9.2351999 67.6746979 0.0
551 1 10.6560002 67.6746979 0.0
552 1 11.3663998 66.4441986 0.0
553 1 8.5248003 68.905098 0.0
554 1 9.2351999 70.1355972 0.0
555 1 10.6560002 70.1355972 0.0
556 1 11.3663998 68.905098 0.0
557 1 8.5248003 71.3659973 0.0
558 1 9.2351999 72.5964966 0.0
559 1 10.6560002 72.5964966 0.0
560 1 11.3663998 71.3659973 0.0
561 1 8.5248003 73.8268967 0.0
562 1 9.2351999 75.0574036 0.0
563 1 10.6560002 75.0574036 0.0
564 1 11.3663998 73.8268967 0.0
565 1 8.5248003 76.2878037 0.0
566 1 9.2351999 77.5183029 0.0
567 1 10.6560002 77.5183029 0.0
568 1 11.3663998 76.2878037 0.0
569 1 8.5248003 78.748703 0.0
570 1 9.2351999 79.9792024 0.0
571 1 10.6560002 79.9792024 0.0
572 1 11.3663998 78.748703 0.0
573 1 8.5248003 81.2096024 0.0
574 1 9.2351999 82.4401016 0.0
575 1 10.6560002 82.4401016 0.0
576 1 11.3663998 81.2096024 0.0
577 1 8.5248003 83.6705017 0.0
578 1 9.2351999 84.901001 0.0
579 1 10.6560002 84.901001 0.0
580 1 11.3663998 83.6705017 0.0
581 1 8.5248003 86.1314011 0.0
582 1 9.2351999 87.3619003 0.0
583 1 10.6560002 87.3619003 0.0
584 1 11.3663998 86.1314011 0.0
585 1 8.5248003 88.5923004 0.0
586 1 9.2351999 89.8227997 0.0
587 1 10.6560002 89.8227997 0.0
588 1 11.3663998 88.5923004 0.0
589 1 8.5248003 91.0531998 0.0
590 1 9.2351999 92.283699 0.0
591 1 10.6560002 92.283699 0.0
592 1 11.3663998 91.0531998 0.0
593 1 8.5248003 93.5140991 0.0
594 1 9.2351999 94.7445984 0.0
595 1 10.6560002 94.7445984 0.0
596 1 11.3663998 93.5140991 0.0
597 1 8.5248003 95.9749986 0.0
598 1 9.2351999 97.2054977 0.0
599 1 10.6560002 97.2054977 0.0
600 1 11.3663998 95.9749986 0.0
601 1 8.5248003 98.4358979 0.0
602 1 9.2351999 99.6663971 0.0
603 1 10.6560002 99.6663971 0.0
604 1 11.3663998 98.4358979 0.0
605 1 8.5248003 100.8970032 0.0
606 1 9.2351999 102.1269989 0.0
607 1 10.6560002 102.1269989 0.0
608 1 11.3663998 100.8970032 0.0
609 1 8.5248003 103.3580017 0.0
610 1 9.2351999 104.5879975 0.0
611 1 10.6560002 104.5879975 0.0
612 1 11.3663998 103.3580017 0.0
613 1 8.5248003 105.8190003 0.0
614 1 9.2351999 107.0490036 0.0
615 1 10.6560002 107.0490036 0.0
616 1 11.3663998 105.8190003 0.0
617 1 8.5248003 108.2799988 0.0
618 1 9.2351999 109.5100022 0.0
619 1 10.6560002 109.5100022 0.0
620 1 11.3663998 108.2799988 0.0
621 1 8.5248003 110.7399979 0.0
622 1 9.2351999 111.9710008 0.0
623 1 10.6560002 111.9710008 0.0
624 1 11.3663998 110.7399979 0.0
625 1 8.5248003 113.2009964 0.0
626 1 9.2351999 114.4319992 0.0
627 1 10.6560002 114.4319992 0.0
628 1 11.3663998 113.2009964 0.0
629 1 8.5248003 115.6620026 0.0
630 1 9.2351999 116.8929978 0.0
631 1 10.6560002 116.8929978 0.0
632 1 11.3663998 115.6620026 0.0
633 1 8.5248003 118.1230011 0.0
634 1 9.2351999 119.3539963 0.0
635 1 10.6560002 119.3539963 0.0
636 1 11.3663998 118.1230011 0.0
637 1 8.5248003 120.5839997 0.0
638 1 9.2351999 121.814003 0.0
639 1 10.6560002 121.814003 0.0
640 1 11.3663998 120.5839997 0.0
641 1 8.5248003 123.0449982 0.0
642 1 9.2351999 124.2750015 0.0
643 1 10.6560002 124.2750015 0.0
644 1 11.3663998 123.0449982 0.0
645 1 8.5248003 125.5059967 0.0
646 1 9.2351999 126.7360001 0.0
647 1 10.6560002 126.7360001 0.0
648 1 11.3663998 125.5059967 0.0
649 1 8.5248003 127.967003 0.0
650 1 9.2351999 129.1970062 0.0
651 1 10.6560002 129.1970062 0.0
652 1 11.3663998 127.967003 0.0
653 1 8.5248003 130.4279938 0.0
654 1 9.2351999 131.6580048 0.0
655 1 10.6560002 131.6580048 0.0
656 1 11.3663998 130.4279938 0.0
657 1 8.5248003 132.8880006 0.0
658 1 9.2351999 134.1190033 0.0
659 1 10.6560002 134.1190033 0.0
660 1 11.3663998 132.8880006 0.0
661 1 12.7872 0.0 0.0
662 1 13.4975996 1.23045 0.0
663 1 14.9183998 1.23045 0.0
664 1 15.6288004 0.0 0.0
665 1 12.7872 2.4609001 0.0
666 1 13.4975996 3.69135 0.0
667 1 14.9183998 3.69135 0.0
668 1 15.6288004 2.4609001 0.0
669 1 12.7872 4.9218002 0.0
670 1 13.4975996 6.1522398 0.0
671 1 14.9183998 6.1522398 0.0
672 1 15.6288004 4.9218002 0.0
673 1 12.7872 7.38269 0.0
674 1 13.4975996 8.6131401 0.0
675 1 14.9183998 8.6131401 0.0
676 1 15.6288004 7.38269 0.0
677 1 12.7872 9.8435898 0.0
678 1 13.4975996 11.0740004 0.0
679 1 14.9183998 11.0740004 0.0
680 1 15.6288004 9.8435898 0.0
681 1 12.7872 12.3044996 0.0
682 1 13.4975996 13.5348997 0.0
683 1 14.9183998 13.5348997 0.0
684 1 15.6288004 12.3044996 0.0
685 1 12.7872 14.7654 0.0
686 1 13.4975996 15.9958 0.0
687 1 14.9183998 15.9958 0.0
688 1 15.6288004 14.7654 0.0
689 1 12.7872 17.2262993 0.0
690 1 13.4975996 18.4566994 0.0
691 1 14.9183998 18.4566994 0.0
692 1 15.6288004 17.2262993 0.0
693 1 12.7872 19.6872006 0.0
694 1 13.4975996 20.9176006 0.0
695 1 14.9183998 20.9176006 0.0
696 1 15.6288004 19.6872006 0.0
697 1 12.7872 22.1480999 0.0
698 1 13.4975996 23.3785 0.0
699 1 14.9183998 23.3785 0.0
700 1 15.6288004 22.1480999 0.0
701 1 12.7872 24.6089993 0.0
702 1 13.4975996 25.8393994 0.0
703 1 14.9183998 25.8393994 0.0
704 1 15.6288004 24.6089993 0.0
705 1 12.7872 27.0699005 0.0
706 1 13.4975996 28.3003006 0.0
707 1 14.9183998 28.3003006 0.0
708 1 15.6288004 27.0699005 0.0
709 1 12.7872 29.5307999 0.0
710 1 13.4975996 30.7612 0.0
711 1 14.9183998 30.7612 0.0
712 1 15.6288004 29.5307999 0.0
713 1 12.7872 31.9916992 0.0
714 1 13.4975996 33.2220993 0.0
715 1 14.9183998 33.2220993 0.0
716 1 15.6288004 31.9916992 0.0
717 1 12.7872 34.4525986 0.0
718 1 13.4975996 35.6829987 0.0
719 1 14.9183998 35.6829987 0.0
720 1 15.6288004 34.4525986 0.0
721 1 12.7872 36.9135018 0.0
722 1 13.4975996 38.1439018 0.0
723 1 14.9183998 38.1439018 0.0
724 1 15.6288004 36.9135018 0.0
725 1 12.7872 39.3744011 0.0
726 1 13.4975996 40.6048012 0.0
727 1 14.9183998 40.6048012 0.0
728 1 15.6288004 39.3744011 0.0
729 1 12.7872 41.8353005 0.0
730 1 13.4975996 43.0657005 0.0
731 1 14.9183998 43.0657005 0.0
732 1 15.6288004 41.8353005 0.0
733 1 12.7872 44.2961998 0.0
734 1 13.4975996 45.5265999 0.0
735 1 14.9183998 45.5265999 0.0
736 1 15.6288004 44.2961998 0.0
737 1 12.7872 46.7570992 0.0
738 1 13.4975996 47.9874992 0.0
739 1 14.9183998 47.9874992 0.0
740 1 15.6288004 46.7570992 0.0
741 1 12.7872 49.2179985 0.0
742 1 13.4975996 50.4483986 0.0
743 1 14.9183998 50.4483986 0.0
744 1 15.6288004 49.2179985 0.0
745 1 12.7872 51.6789017 0.0
746 1 13.4975996 52.9093018 0.0
747 1 14.9183998 52.9093018 0.0
748 1 15.6288004 51.6789017 0.0
749 1 12.7872 54.139801 0.0
750 1 13.4975996 55.3702011 0.0
751 1 14.9183998 55.3702011 0.0
752 1 15.6288004 54.139801 0.0
753 1 12.7872 56.6006012 0.0
754 1 13.4975996 57.8311005 0.0
755 1 14.9183998 57.8311005 0.0
756 1 15.6288004 56.6006012 0.0
757 1 12.7872 59.0615006 0.0
758 1 13.4975996 60.2919998 0.0
759 1 14.9183998 60.2919998 0.0
760 1 15.6288004 59.0615006 0.0
761 1 12.7872 61.5223999 0.0
762 1 13.4975996 62.7528992 0.0
763 1 14.9183998 62.7528992 0.0
764 1 15.6288004 61.5223999 0.0
765 1 12.7872 63.9832994 0.0
766 1 13.4975996 65.2137985 0.0
767 1 14.9183998 65.2137985 0.0
768 1 15.6288004 63.9832994 0.0
769 1 12.7872 66.4441986 0.0
770 1 13.4975996 67.6746979 0.0
771 1 14.9183998 67.6746979 0.0
772 1 15.6288004 66.4441986 0.0
773 1 12.7872 68.905098 0.0
774 1 13.4975996 70.1355972 0.0
775 1 14.9183998 70.1355972 0.0
776 1 15.6288004 68.905098 0.0
777 1 12.7872 71.3659973 0.0
778 1 13.4975996 72.5964966 0.0
779 1 14.9183998 72.5964966 0.0
780 1 15.6288004 71.3659973 0.0
781 1 12.7872 73.8268967 0.0
782 1 13.4975996 75.0574036 0.0
783 1 14.9183998 75.0574036 0.0
784 1 15.6288004 73.8268967 0.0
785 1 12.7872 76.2878037 0.0
786 1 13.4975996 77.5183029 0.0
787 1 14.9183998 77.5183029 0.0
788 1 15.6288004 76.2878037 0.0
789 1 12.7872 78.748703 0.0
790 1 13.4975996 79.9792024 0.0
791 1 14.9183998 79.9792024 0.0
792 1 15.6288004 78.748703 0.0
793 1 12.7872 81.2096024 0.0
794 1 13.4975996 82.4401016 0.0
795 1 14.9183998 82.4401016 0.0
796 1 15.6288004 81.2096024 0.0
797 1 12.7872 83.6705017 0.0
798 1 13.4975996 84.901001 0.0
799 1 14.9183998 84.901001 0.0
800 1 15.6288004 83.6705017 0.0
801 1 12.7872 86.1314011 0.0
802 1 13.4975996 87.3619003 0.0
803 1 14.9183998 87.3619003 0.0
804 1 15.6288004 86.1314011 0.0
805 1 12.7872 88.5923004 0.0
806 1 13.4975996 89.8227997 0.0
807 1 14.9183998 89.8227997 0.0
808 1 15.6288004 88.5923004 0.0
809 1 12.7872 91.0531998 0.0
810 1 13.4975996 92.283699 0.0
811 1 14.9183998 92.283699 0.0
812 1 15.6288004 91.0531998 0.0
813 1 12.7872 93.5140991 0.0
814 1 13.4975996 94.7445984 0.0
815 1 14.9183998 94.7445984 0.0
816 1 15.6288004 93.5140991 0.0
817 1 12.7872 95.9749986 0.0
818 1 13.4975996 97.2054977 0.0
819 1 14.9183998 97.2054977 0.0
820 1 15.6288004 95.9749986 0.0
821 1 12.7872 98.4358979 0.0
822 1 13.4975996 99.6663971 0.0
823 1 14.9183998 99.6663971 0.0
824 1 15.6288004 98.4358979 0.0
825 1 12.7872 100.8970032 0.0
826 1 13.4975996 102.1269989 0.0
827 1 14.9183998 102.1269989 0.0
828 1 15.6288004 100.8970032 0.0
829 1 12.7872 103.3580017 0.0
830 1 13.4975996 104.5879975 0.0
831 1 14.9183998 104.5879975 0.0
832 1 15.6288004 103.3580017 0.0
833 1 12.7872 105.8190003 0.0
834 1 13.4975996 107.0490036 0.0
835 1 14.9183998 107.0490036 0.0
836 1 15.6288004 105.8190003 0.0
837 1 12.7872 108.2799988 0.0
838 1 13.4975996 109.5100022 0.0
839 1 14.9183998 109.5100022 0.0
840 1 15.6288004 108.2799988 0.0
841 1 12.7872 110.7399979 0.0
842 1 13.4975996 111.9710008 0.0
843 1 14.9183998 111.9710008 0.0
844 1 15.6288004 110.7399979 0.0
845 1 12.7872 113.2009964 0.0
846 1 13.4975996 114.4319992 0.0
847 1 14.9183998 114.4319992 0.0
848 1 15.6288004 113.2009964 0.0
849 1 12.7872 115.6620026 0.0
850 1 13.4975996 116.8929978 0.0
851 1 14.9183998 116.8929978 0.0
852 1 15.6288004 115.6620026 0.0
853 1 12.7872 118.1230011 0.0
854 1 13.4975996 119.3539963 0.0
855 1 14.9183998 119.3539963 0.0
856 1 15.6288004 118.1230011 0.0
857 1 12.7872 120.5839997 0.0
858 1 13.4975996 121.814003 0.0
859 1 14.9183998 121.814003 0.0
860 1 15.6288004 120.5839997 0.0
861 1 12.7872 123.0449982 0.0
862 1 13.4975996 124.2750015 0.0
863 1 14.9183998 124.2750015 0.0
864 1 15.6288004 123.0449982 0.0
865 1 12.7872 125.5059967 0.0
866 1 13.4975996 126.7360001 0.0
867 1 14.9183998 126.7360001 0.0
868 1 15.6288004 125.5059967 0.0
869 1 12.7872 127.967003 0.0
870 1 13.4975996 129.1970062 0.0
871 1 14.9183998 129.1970062 0.0
872 1 15.6288004 127.967003 0.0
873 1 12.7872 130.4279938 0.0
874 1 13.4975996 131.6580048 0.0
875 1 14.9183998 131.6580048 0.0
876 1 15.6288004 130.4279938 0.0
877 1 12.7872 132.8880006 0.0
878 1 13.4975996 134.1190033 0.0
879 1 14.9183998 134.1190033 0.0
880 1 15.6288004 132.8880006 0.0
881 1 17.0496006 0.0 0.0
882 1 17.7600003 1.23045 0.0
883 1 19.1807995 1.23045 0.0
884 1 19.8911992 0.0 0.0
885 1 17.0496006 2.4609001 0.0
886 1 17.7600003 3.69135 0.0
887 1 19.1807995 3.69135 0.0
888 1 19.8911992 2.4609001 0.0
889 1 17.0496006 4.9218002 0.0
890 1 17.7600003 6.1522398 0.0
891 1 19.1807995 6.1522398 0.0
892 1 19.8911992 4.9218002 0.0
893 1 17.0496006 7.38269 0.0
894 1 17.7600003 8.6131401 0.0
895 1 19.1807995 8.6131401 0.0
896 1 19.8911992 7.38269 0.0
897 1 17.0496006 9.8435898 0.0
898 1 17.7600003 11.0740004 0.0
899 1 19.1807995 11.0740004 0.0
900 1 19.8911992 9.8435898 0.0
901 1 17.0496006 12.3044996 0.0
902 1 17.7600003 13.5348997 0.0
903 1 19.1807995 13.5348997 0.0
904 1 19.8911992 12.3044996 0.0
905 1 17.0496006 14.7654 0.0
906 1 17.7600003 15.9958 0.0
907 1 19.1807995 15.9958 0.0
908 1 19.8911992 14.7654 0.0
909 1 17.0496006 17.2262993 0.0
910 1 17.7600003 18.4566994 0.0
911 1 19.1807995 18.4566994 0.0
912 1 19.8911992 17.2262993 0.0
913 1 17.0496006 19.6872006 0.0
914 1 17.7600003 20.9176006 0.0
915 1 19.1807995 20.9176006 0.0
916 1 19.8911992 19.6872006 0.0
917 1 17.0496006 22.1480999 0.0
918 1 17.7600003 23.3785 0.0
919 1 19.1807995 23.3785 0.0
920 1 19.8911992 22.1480999 0.0
921 1 17.0496006 24.6089993 0.0
922 1 17.7600003 25.8393994 0.0
923 1 19.1807995 25.8393994 0.0
924 1 19.8911992 24.6089993 0.0
925 1 17.0496006 27.0699005 0.0
926 1 17.7600003 28.3003006 0.0
927 1 19.1807995 28.3003006 0.0
928 1 19.8911992 27.0699005 0.0
929 1 17.0496006 29.5307999 0.0
930 1 17.7600003 30.7612 0.0
931 1 19.1807995 30.7612 0.0
932 1 19.8911992 29.5307999 0.0
933 1 17.0496006 31.9916992 0.0
934 1 17.7600003 33.2220993 0.0
935 1 19.1807995 33.2220993 0.0
936 1 19.8911992 31.9916992 0.0
937 1 17.0496006 34.4525986 0.0
938 1 17.7600003 35.6829987 0.0
939 1 19.1807995 35.6829987 0.0
940 1 19.8911992 34.4525986 0.0
941 1 17.0496006 36.9135018 0.0
942 1 17.7600003 38.1439018 0.0
943 1 19.1807995 38.1439018 0.0
944 1 19.8911992 36.9135018 0.0
945 1 17.0496006 39.3744011 0.0
946 1 17.7600003 40.6048012 0.0
947 1 19.1807995 40.6048012 0.0
948 1 19.8911992 39.3744011 0.0
949 1 17.0496006 41.8353005 0.0
950 1 17.7600003 43.0657005 0.0
951 1 19.1807995 43.0657005 0.0
952 1 19.8911992 41.8353005 0.0
953 1 17.0496006 44.2961998 0.0
954 1 17.7600003 45.5265999 0.0
955 1 19.1807995 45.5265999 0.0
956 1 19.8911992 44.2961998 0.0
957 1 17.0496006 46.7570992 0.0
958 1 17.7600003 47.9874992 0.0
959 1 19.1807995 47.9874992 0.0
960 1 19.8911992 46.7570992 0.0
961 1 17.0496006 49.2179985 0.0
962 1 17.7600003 50.4483986 0.0
963 1 19.1807995 50.4483986 0.0
964 1 19.8911992 49.2179985 0.0
965 1 17.0496006 51.6789017 0.0
966 1 17.7600003 52.9093018 0.0
967 1 19.1807995 52.9093018 0.0
968 1 19.8911992 51.6789017 0.0
969 1 17.0496006 54.139801 0.0
970 1 17.7600003 55.3702011 0.0
971 1 19.1807995 55.3702011 0.0
972 1 19.8911992 54.139801 0.0
973 1 17.0496006 56.6006012 0.0
974 1 17.7600003 57.8311005 0.0
975 1 19.1807995 57.8311005 0.0
976 5 19.8911992 56.6006012 0.0
977 1 17.0496006 59.0615006 0.0
978 1 17.7600003 60.2919998 0.0
979 1 19.1807995 60.2919998 0.0
980 5 19.8911992 59.0615006 0.0
981 1 17.0496006 61.5223999 0.0
982 1 17.7600003 62.7528992 0.0
983 1 19.1807995 62.7528992 0.0
984 5 19.8911992 61.5223999 0.0
985 1 17.0496006 63.9832994 0.0
986 1 17.7600003 65.2137985 0.0
987 1 19.1807995 65.2137985 0.0
988 5 19.8911992 63.9832994 0.0
989 1 17.0496006 66.4441986 0.0