
  **** **** ******  **  PROGRAM STARTED AT               2025-10-22 19:20:22.194
 ***** ** ***  *** **   PROGRAM STARTED ON                       badwlrz-cl18014
 **    ****   ******    PROGRAM STARTED BY                               di97gef
 ***** **    ** ** **   PROGRAM PROCESS ID                                192194
  **** **  *******  **  PROGRAM STARTED IN /home/di97gef/Documents/lrz/work/biop
                                           hy_course/jupyternbs_mol_modeling_ai/
                                           final_notebooks/CP2K-DFT

 CP2K| version string:                                       CP2K version 2023.1
 CP2K| source code revision number:                                  git:b888bd8
 CP2K| cp2kflags: omp libint fftw3 libxc elpa parallel scalapack spglib         
 CP2K| is freely available from                            https://www.cp2k.org/
 CP2K| Program compiled at                          Tue Jan 10 19:52:03 UTC 2023
 CP2K| Program compiled on                                            x86-ubc-01
 CP2K| Program compiled for                                Linux-x86_64-gfortran
 CP2K| Data directory path                                       /usr/share/cp2k
 CP2K| Input file name                                                 equil.inp

 GLOBAL| Force Environment number                                              1
 GLOBAL| Basis set file name                                        BASIS_MOLOPT
 GLOBAL| Potential file name                                           POTENTIAL
 GLOBAL| MM Potential file name                                     MM_POTENTIAL
 GLOBAL| Coordinate file name                                      __STD_INPUT__
 GLOBAL| Method name                                                        CP2K
 GLOBAL| Project name                                                      equil
 GLOBAL| Run type                                                             MD
 GLOBAL| FFT library                                                       FFTW3
 GLOBAL| Diagonalization library                                       ScaLAPACK
 GLOBAL| DGEMM library                                                      BLAS
 GLOBAL| Orthonormality check for eigenvectors                          DISABLED
 GLOBAL| Matrix multiplication library                                 ScaLAPACK
 GLOBAL| All-to-all communication in single precision                          F
 GLOBAL| FFTs using library dependent lengths                                  F
 GLOBAL| Grid backend                                                       AUTO
 GLOBAL| Global print level                                                  LOW
 GLOBAL| MPI I/O enabled                                                       T
 GLOBAL| Total number of message passing processes                             1
 GLOBAL| Number of threads for this process                                   14
 GLOBAL| This output is from process                                           0
 GLOBAL| Stack size for threads created by OpenMP (OMP_STACKSIZE)        default
 GLOBAL| CPU model name                           Intel(R) Core(TM) Ultra 7 155U

 MEMORY| system memory details [Kb]
 MEMORY|                        rank 0           min           max       average
 MEMORY| MemTotal             15867484      15867484      15867484      15867484
 MEMORY| MemFree               1802288       1802288       1802288       1802288
 MEMORY| Buffers                 18172         18172         18172         18172
 MEMORY| Cached                5071376       5071376       5071376       5071376
 MEMORY| Slab                   708060        708060        708060        708060
 MEMORY| SReclaimable           423016        423016        423016        423016
 MEMORY| MemLikelyFree         7314852       7314852       7314852       7314852


 GENERATE|  Preliminary Number of Bonds generated:                             0
 GENERATE|  Achieved consistency in connectivity generation.

 *******************************************************************************
 *******************************************************************************
 **                                                                           **
 **     #####                         ##              ##                      **
 **    ##   ##            ##          ##              ##                      **
 **   ##     ##                       ##            ######                    **
 **   ##     ##  ##   ##  ##   #####  ##  ##   ####   ##    #####    #####    **
 **   ##     ##  ##   ##  ##  ##      ## ##   ##      ##   ##   ##  ##   ##   **
 **   ##  ## ##  ##   ##  ##  ##      ####     ###    ##   ######   ######    **
 **    ##  ###   ##   ##  ##  ##      ## ##      ##   ##   ##       ##        **
 **     #######   #####   ##   #####  ##  ##  ####    ##    #####   ##        **
 **           ##                                                    ##        **
 **                                                                           **
 **                                                ... make the atoms dance   **
 **                                                                           **
 **            Copyright (C) by CP2K developers group (2000-2022)             **
 **                      J. Chem. Phys. 152, 194103 (2020)                    **
 **                                                                           **
 *******************************************************************************


 TOTAL NUMBERS AND MAXIMUM NUMBERS

  Total number of            - Atomic kinds:                                   3
                             - Atoms:                                         23
                             - Shell sets:                                    23
                             - Shells:                                        33
                             - Primitive Cartesian functions:                160
                             - Cartesian basis functions:                     53
                             - Spherical basis functions:                     53

  Maximum angular momentum of- Orbital basis functions:                        1
                             - Local part of the GTH pseudopotential:          2
                             - Non-local part of the GTH pseudopotential:      2


 SCF PARAMETERS         Density guess:                                   RESTART
                        --------------------------------------------------------
                        max_scf:                                              20
                        max_scf_history:                                       0
                        max_diis:                                              4
                        --------------------------------------------------------
                        eps_scf:                                        1.00E-08
                        eps_scf_history:                                0.00E+00
                        eps_diis:                                       1.00E-01
                        eps_eigval:                                     1.00E-05
                        --------------------------------------------------------
                        level_shift [a.u.]:                             0.000000
                        --------------------------------------------------------
                        Mixing method:                            BROYDEN_MIXING
                                                charge density mixing in g-space
                        --------------------------------------------------------
                        No outer SCF

 Number of electrons:                                                         72
 Number of occupied orbitals:                                                 36
 Number of molecular orbitals:                                                36

 Number of orbital functions:                                                 53
 Number of independent orbital functions:                                     53

 Extrapolation method: initial_guess

 *** WARNING in qs_initial_guess.F:309 :: User requested to restart the    ***
 *** wavefunction from the file named: equil-RESTART.wfn. This file does   ***
 *** not exist. Please check the existence of the file or change properly  ***
 *** the value of the keyword WFN_RESTART_FILE_NAME. Calculation continues ***
 *** using ATOMIC GUESS.                                                   ***



 SCF WAVEFUNCTION OPTIMIZATION

  Step     Update method      Time    Convergence         Total energy    Change
  ------------------------------------------------------------------------------
     1 NoMix/Diag. 0.50E-01    0.2     2.81967186      -252.4533472077 -2.52E+02
     2 Broy./Diag. 0.50E-01    0.0     0.02946449      -253.9393155134 -1.49E+00
     3 Broy./Diag. 0.50E-01    0.7     2.38548321      -262.6691040804 -8.73E+00
     4 Broy./Diag. 0.50E-01    0.0     2.38548321      -266.6458693798 -3.98E+00
     5 Broy./Diag. 0.50E-01    0.0     0.02494604      -265.4707930725  1.18E+00
     6 Broy./Diag. 0.50E-01    0.0     2.38655561      -266.2615973315 -7.91E-01
     7 Broy./Diag. 0.50E-01    1.5     0.15432767      -268.5449647250 -2.28E+00
     8 Broy./Diag. 0.50E-01    0.3     1.85241856      -268.8450697499 -3.00E-01
     9 Broy./Diag. 0.50E-01    0.5     0.01519235      -269.8230395567 -9.78E-01
    10 Broy./Diag. 0.50E-01    0.1     1.40832584      -270.1382682035 -3.15E-01
    11 Broy./Diag. 0.50E-01    0.1     0.08949058      -268.3136488670  1.82E+00
    12 Broy./Diag. 0.50E-01    0.1     1.74554246      -268.8240282209 -5.10E-01
    13 Broy./Diag. 0.50E-01    0.8     0.00191402      -269.5723908420 -7.48E-01
    14 Broy./Diag. 0.50E-01    0.3     0.14113547      -269.5523616028  2.00E-02
    15 Broy./Diag. 0.50E-01    0.1     1.77848601      -269.4337714473  1.19E-01
    16 Broy./Diag. 0.50E-01    0.1     0.12475708      -268.6459646692  7.88E-01
    17 Broy./Diag. 0.50E-01    0.8     1.77046954      -269.0324837474 -3.87E-01
    18 Broy./Diag. 0.50E-01    0.1     0.04009622      -269.5892214859 -5.57E-01
    19 Broy./Diag. 0.50E-01    1.5     1.78149794      -269.5801659776  9.06E-03
    20 Broy./Diag. 0.50E-01    0.5     1.78734770      -269.3334703714  2.47E-01

  Leaving inner SCF loop after reaching    20 steps.


  Electronic density on regular grids:        -73.1481515795       -1.1481515795
  Core density on regular grids:               53.1968240681      -18.8031759319
  Total charge density on r-space grids:      -19.9513275113
  Total charge density g-space grids:         -19.9513275113

  Overlap energy of the core charge distribution:               0.00000264646007
  Self energy of the core charge distribution:               -408.47288516314535
  Core Hamiltonian energy:                                    114.58046525649812
  Hartree energy:                                              64.23512717359107
  Exchange-correlation energy:                                -39.67371842152786
  Dispersion energy:                                           -0.00246186332346

  Total energy:                                              -269.33347037144733

 *** WARNING in qs_scf.F:601 :: SCF run NOT converged ***


 ENERGY| Total FORCE_EVAL ( QS ) energy [a.u.]:             -269.985174714675054

 STRESS| Analytical stress tensor [GPa]
 STRESS|                        x                   y                   z
 STRESS|      x        4.85625094589E+01   8.79694805110E+00   4.48239769428E+00
 STRESS|      y        8.79694805110E+00   5.00654188194E+00  -9.85920768817E-01
 STRESS|      z        4.48239769428E+00  -9.85920768817E-01  -2.75610276767E+00
 STRESS| 1/3 Trace                                             1.69376495244E+01
 STRESS| Determinant                                          -6.82355424151E+02

 STRESS| Eigenvectors and eigenvalues of the analytical stress tensor [GPa]
 STRESS|                        1                   2                   3
 STRESS| Eigenvalues  -3.56955733785E+00   3.77748432902E+00   5.06050215820E+01
 STRESS|      x          -0.122821540519     -0.161758563497      0.979157309282
 STRESS|      y           0.236780625139      0.953358324604      0.187197330289
 STRESS|      z           0.963768543138     -0.254837344289      0.078791644309

 Number of electrons:                                                         72
 Number of occupied orbitals:                                                 36
 Number of molecular orbitals:                                                36

 Number of orbital functions:                                                 53
 Number of independent orbital functions:                                     53

 Extrapolation method: ASPC


 SCF WAVEFUNCTION OPTIMIZATION

  Step     Update method      Time    Convergence         Total energy    Change
  ------------------------------------------------------------------------------
     1 Broy./Diag. 0.50E-01    1.1     3.10494160      -272.5164802080 -2.73E+02
     2 Broy./Diag. 0.50E-01    0.2     0.08433799      -271.1086422404  1.41E+00
     3 Broy./Diag. 0.50E-01    0.0     2.09788685      -277.9212033459 -6.81E+00
     4 Broy./Diag. 0.50E-01    0.0     2.09739716      -281.1118890512 -3.19E+00
     5 Broy./Diag. 0.50E-01    0.1     0.12690347      -278.9936772261  2.12E+00
     6 Broy./Diag. 0.50E-01    0.6     0.22011104      -278.9466495546  4.70E-02
     7 Broy./Diag. 0.50E-01    0.1     2.14459103      -279.7976616610 -8.51E-01
     8 Broy./Diag. 0.50E-01    0.3     0.91898672      -282.0806724443 -2.28E+00
     9 Broy./Diag. 0.50E-01    0.6     0.05676047      -282.2994933906 -2.19E-01
    10 Broy./Diag. 0.50E-01    0.1     0.43417791      -283.1164332134 -8.17E-01
    11 Broy./Diag. 0.50E-01    1.6     0.97544124      -283.6120854986 -4.96E-01
    12 Broy./Diag. 0.50E-01    0.4     0.30668004      -283.2935429173  3.19E-01
    13 Broy./Diag. 0.50E-01    1.5     0.00661509      -283.2843410914  9.20E-03
    14 Broy./Diag. 0.50E-01    0.8     1.63620777      -283.2229209134  6.14E-02
    15 Broy./Diag. 0.50E-01    0.2     0.28482027      -283.6954669489 -4.73E-01
    16 Broy./Diag. 0.50E-01    0.1     0.10858901      -283.7159143497 -2.04E-02
    17 Broy./Diag. 0.50E-01    0.2     0.19157271      -283.7424493178 -2.65E-02
    18 Broy./Diag. 0.50E-01    0.1     0.24600379      -283.5836736572  1.59E-01
    19 Broy./Diag. 0.50E-01    0.1     1.61187459      -283.4626815490  1.21E-01
    20 Broy./Diag. 0.50E-01    0.1     1.61901985      -283.0156747575  4.47E-01

  Leaving inner SCF loop after reaching    20 steps.


  Electronic density on regular grids:        -72.8526886119       -0.8526886119
  Core density on regular grids:               50.5048543392      -21.4951456608
  Total charge density on r-space grids:      -22.3478342727
  Total charge density g-space grids:         -22.3478342727

  Overlap energy of the core charge distribution:               0.00040985122570
  Self energy of the core charge distribution:               -408.47288516314535
  Core Hamiltonian energy:                                    109.54340808473381
  Hartree energy:                                              53.88371374626174
  Exchange-correlation energy:                                -37.96719476544047
  Dispersion energy:                                           -0.00312651116020

  Total energy:                                              -283.01567475752472

 *** WARNING in qs_scf.F:601 :: SCF run NOT converged ***


 ENERGY| Total FORCE_EVAL ( QS ) energy [a.u.]:             -280.820103095561308

 STRESS| Analytical stress tensor [GPa]
 STRESS|                        x                   y                   z
 STRESS|      x        2.43193336449E+01   9.01390523185E+00   1.30256852455E+01
 STRESS|      y        9.01390523185E+00   2.97361663735E+01   2.27257908187E+00
 STRESS|      z        1.30256852455E+01   2.27257908187E+00   1.42692869310E+01
 STRESS| 1/3 Trace                                             2.27749289831E+01
 STRESS| Determinant                                           4.52241193959E+03

 STRESS| Eigenvectors and eigenvalues of the analytical stress tensor [GPa]
 STRESS|                        1                   2                   3
 STRESS| Eigenvalues   4.86424026992E+00   2.29505249987E+01   4.05100216808E+01
 STRESS|      x          -0.595673738853      0.449163779916      0.665901415866
 STRESS|      y           0.143671580963     -0.756082390682      0.638512251506
 STRESS|      z           0.790272910876      0.476016089342      0.385846354167

 Number of electrons:                                                         72
 Number of occupied orbitals:                                                 36
 Number of molecular orbitals:                                                36

 Number of orbital functions:                                                 53
 Number of independent orbital functions:                                     53

 Extrapolation method: ASPC


 SCF WAVEFUNCTION OPTIMIZATION

  Step     Update method      Time    Convergence         Total energy    Change
  ------------------------------------------------------------------------------
     1 Broy./Diag. 0.50E-01    0.1     2.05124942      -158.1141832936 -1.58E+02
     2 Broy./Diag. 0.50E-01    0.1     0.03461377      -149.0721174505  9.04E+00
     3 Broy./Diag. 0.50E-01    0.3     2.04145527      -173.8628070075 -2.48E+01
     4 Broy./Diag. 0.50E-01    0.5     1.72273146      -178.5831235658 -4.72E+00
     5 Broy./Diag. 0.50E-01    0.1     0.06214702      -176.4739643796  2.11E+00
     6 Broy./Diag. 0.50E-01    0.5     0.05709913      -176.4927628915 -1.88E-02
     7 Broy./Diag. 0.50E-01    0.3     1.52466459      -179.1944630164 -2.70E+00
     8 Broy./Diag. 0.50E-01    0.7     0.47922507      -180.2403451878 -1.05E+00
     9 Broy./Diag. 0.50E-01    0.3     1.07584972      -181.2046887159 -9.64E-01
    10 Broy./Diag. 0.50E-01    0.9     0.04439006      -182.5415440308 -1.34E+00
    11 Broy./Diag. 0.50E-01    0.4     0.00519342      -182.6275992743 -8.61E-02
    12 Broy./Diag. 0.50E-01    0.2     1.97890862      -183.8388214677 -1.21E+00
    13 Broy./Diag. 0.50E-01    0.3     1.82933022      -182.9135449981  9.25E-01
    14 Broy./Diag. 0.50E-01    0.1     0.19286519      -182.4416713895  4.72E-01
    15 Broy./Diag. 0.50E-01    0.4     0.04445409      -182.6970811089 -2.55E-01
    16 Broy./Diag. 0.50E-01    0.1     1.81176690      -183.4344548832 -7.37E-01
    17 Broy./Diag. 0.50E-01    0.8     1.86328477      -184.1077965234 -6.73E-01
    18 Broy./Diag. 0.50E-01    0.3     0.09024635      -183.5685835912  5.39E-01
    19 Broy./Diag. 0.50E-01    0.1     0.06633424      -183.6426264506 -7.40E-02
    20 Broy./Diag. 0.50E-01    0.1     1.83278101      -183.9982787141 -3.56E-01

  Leaving inner SCF loop after reaching    20 steps.


  Electronic density on regular grids:        -73.1942858981       -1.1942858981
  Core density on regular grids:               69.5389322569       -2.4610677431
  Total charge density on r-space grids:       -3.6553536411
  Total charge density g-space grids:          -3.6553536411

  Overlap energy of the core charge distribution:               0.00000108032123
  Self energy of the core charge distribution:               -408.47288516314535
  Core Hamiltonian energy:                                    109.74337355138869
  Hartree energy:                                             152.92742195632204
  Exchange-correlation energy:                                -38.19040012759712
  Dispersion energy:                                           -0.00579001143632

  Total energy:                                              -183.99827871414684

 *** WARNING in qs_scf.F:601 :: SCF run NOT converged ***


 ENERGY| Total FORCE_EVAL ( QS ) energy [a.u.]:             -183.910592818386760

 STRESS| Analytical stress tensor [GPa]
 STRESS|                        x                   y                   z
 STRESS|      x       -5.21236618944E+01  -1.14021983725E+00   2.43191275065E+00
 STRESS|      y       -1.14021983725E+00   8.92521753826E+00  -1.40185716295E+01
 STRESS|      z        2.43191275065E+00  -1.40185716295E+01   2.74493600087E+01
 STRESS| 1/3 Trace                                            -5.24969478247E+00
 STRESS| Determinant                                          -2.53722214128E+03

 STRESS| Eigenvectors and eigenvalues of the analytical stress tensor [GPa]
 STRESS|                        1                   2                   3
 STRESS| Eigenvalues  -5.22065556937E+01   1.38572170202E+00   3.50717496442E+01
 STRESS|      x           0.999523544466      0.002750541380      0.030742780961
 STRESS|      y           0.012134910914      0.880796095822     -0.473340238646
 STRESS|      z          -0.028380063358      0.473487773978      0.880343058073

 -------------------------------------------------------------------------------
 -                                                                             -
 -                         MESSAGE PASSING PERFORMANCE                         -
 -                                                                             -
 -------------------------------------------------------------------------------

 ROUTINE             CALLS      AVE VOLUME [Bytes]
 MP_Group                4
 MP_Bcast               66                  19631.
 MP_Allreduce          605                    148.
 MP_Sync                64
 -------------------------------------------------------------------------------


 -------------------------------------------------------------------------------
 -                                                                             -
 -                           R E F E R E N C E S                               -
 -                                                                             -
 -------------------------------------------------------------------------------
 
 CP2K version 2023.1, the CP2K developers group (2023).
 CP2K is freely available from https://www.cp2k.org/ .

 Kuehne,Thomas D.; Iannuzzi,Marcella; Del Ben,Mauro;
 Rybkin,Vladimir V.; Seewald,Patrick; Stein,Frederick; Laino,Teodoro;
 Khaliullin,Rustam Z.; Schuett,Ole; Schiffmann,Florian; Golze,Dorothea;
 Wilhelm,Jan; Chulkov,Sergey; Bani-Hashemian,Mohammad Hossein;
 Weber,Valery; Borstnik,Urban; Taillefumier,Mathieu;
 Jakobovits,Alice Shoshana; Lazzaro,Alfio; Pabst,Hans; Mueller,Tiziano;
 Schade,Robert; Guidon,Manuel; Andermatt,Samuel; Holmberg,Nico;
 Schenter,Gregory K.; Hehn,Anna; Bussy,Augustin; Belleflamme,Fabian;
 Tabacchi,Gloria; Gloess,Andreas; Lass,Michael; Bethune,Iain;
 Mundy,Christopher J.; Plessl,Christian; Watkins,Matt;
 VandeVondele,Joost; Krack,Matthias; Hutter,Juerg. 
 The Journal of Chemical Physics, 152 (19), (2020). 
 CP2K: An electronic structure and molecular dynamics software package -
 Quickstep: Efficient and accurate electronic structure calculations.
 https://doi.org/10.1063/5.0007045

 Goerigk, Lars; Hansen, Andreas; Bauer, Christoph; Ehrlich, Stephan;
 Najibi, Asim; Grimme, Stefan. , 19 (48), (2017). 
 A look at the density functional theory zoo with the advanced GMTKN55 database
 for general main group thermochemistry, kinetics and noncovalent interactions.
 https://doi.org/10.1039/C7CP04913G

 Grimme, S; Ehrlich, S; Goerigk, L. 
 JOURNAL OF COMPUTATIONAL CHEMISTRY, 32, 1456 (2011). 
 Effect of the damping function in dispersion corrected density functional theory.
 https://doi.org/10.1002/jcc.21759

 Grimme, S; Antony, J; Ehrlich, S; Krieg, H. 
 JOURNAL OF CHEMICAL PHYSICS, 132 (15), 154104 (2010). 
 A consistent and accurate ab initio parametrization of density
 functional dispersion correction (DFT-D) for the 94 elements H-Pu.
 https://doi.org/10.1063/1.3382344

 VandeVondele, J; Hutter, J. 
 JOURNAL OF CHEMICAL PHYSICS, 127 (11), 114105 (2007). 
 Gaussian basis sets for accurate calculations on molecular systems in
 gas and condensed phases.
 https://doi.org/10.1063/1.2770708

 Kuhne, TD; Krack, M; Mohamed, FR; Parrinello, M. 
 PHYSICAL REVIEW LETTERS, 98 (6), 066401 (2007). 
 Efficient and accurate Car-Parrinello-like approach to
 Born-Oppenheimer molecular dynamics.
 https://doi.org/10.1103/PhysRevLett.98.066401

 Krack, M. 
 THEORETICAL CHEMISTRY ACCOUNTS, 114 (1-3), 145-152 (2005). 
 Pseudopotentials for H to Kr optimized for gradient-corrected
 exchange-correlation functionals.
 https://doi.org/10.1007/s00214-005-0655-y

 VandeVondele, J; Krack, M; Mohamed, F; Parrinello, M; Chassaing, T;
 Hutter, J. COMPUTER PHYSICS COMMUNICATIONS, 167 (2), 103-128 (2005). 
 QUICKSTEP: Fast and accurate density functional calculations using a
 mixed Gaussian and plane waves approach.
 https://doi.org/10.1016/j.cpc.2004.12.014

 Frigo, M; Johnson, SG. 
 PROCEEDINGS OF THE IEEE, 93 (2), 216-231 (2005). 
 The design and implementation of FFTW3.
 https://doi.org/10.1109/JPROC.2004.840301

 Kolafa, J. 
 JOURNAL OF COMPUTATIONAL CHEMISTRY, 25 (3), 335-342 (2004). 
 Time-reversible always stable predictor-corrector method for
 molecular dynamics of polarizable molecules.
 https://doi.org/10.1002/jcc.10385

 Hartwigsen, C; Goedecker, S; Hutter, J. 
 PHYSICAL REVIEW B, 58 (7), 3641-3662 (1998). 
 Relativistic separable dual-space Gaussian pseudopotentials from H to Rn.
 https://doi.org/10.1103/PhysRevB.58.3641

 Lippert, G; Hutter, J; Parrinello, M. 
 MOLECULAR PHYSICS, 92 (3), 477-487 (1997). 
 A hybrid Gaussian and plane wave density functional scheme.
 https://doi.org/10.1080/002689797170220

 Perdew, JP; Burke, K; Ernzerhof, M. 
 PHYSICAL REVIEW LETTERS, 77 (18), 3865-3868 (1996). 
 Generalized gradient approximation made simple.
 https://doi.org/10.1103/PhysRevLett.77.3865

 Goedecker, S; Teter, M; Hutter, J. 
 PHYSICAL REVIEW B, 54 (3), 1703-1710 (1996). 
 Separable dual-space Gaussian pseudopotentials.
 https://doi.org/10.1103/PhysRevB.54.1703


 -------------------------------------------------------------------------------
 -                                                                             -
 -                                T I M I N G                                  -
 -                                                                             -
 -------------------------------------------------------------------------------
 SUBROUTINE                       CALLS  ASD         SELF TIME        TOTAL TIME
                                MAXIMUM       AVERAGE  MAXIMUM  AVERAGE  MAXIMUM
 CP2K                                 1  1.0   58.047   58.047  125.361  125.361
 qs_forces                            3  2.0    0.000    0.000   66.931   66.931
 qs_energies                          3  3.0    0.000    0.000   66.718   66.718
 pw_transfer                       1257 10.9    0.043    0.043   47.672   47.672
 fft_wrap_pw1pw2                   1131 12.0    0.006    0.006   47.273   47.273
 fft_wrap_pw1pw2_10                1131 13.0    1.297    1.297   47.268   47.268
 fft3d_s                           1132 14.0    1.475    1.475   44.803   44.803
 get_fft_scratch                   1132 15.0   43.329   43.329   43.329   43.329
 qs_energies_init_hamiltonians        3  4.0    0.000    0.000   26.422   26.422
 qs_env_update_s_mstruct              3  5.0    0.000    0.000   25.782   25.782
 calculate_rho_core                   3  6.0    0.001    0.001   25.731   25.731
 scf_env_do_scf                       3  4.0    0.000    0.000   22.695   22.695
 scf_env_do_scf_inner_loop           60  5.0    0.005    0.005   22.695   22.695
 qs_rho_update_rho_low               63  6.0    0.000    0.000   19.651   19.651
 calculate_rho_elec                  63  7.0    0.113    0.113   19.651   19.651
 density_rs2pw                       63  8.0    0.002    0.002   18.474   18.474
 init_scf_run                         3  4.0    0.000    0.000   17.443   17.443
 scf_env_initial_rho_setup            3  5.0    0.000    0.000   17.441   17.441
 qs_scf_new_mos                      60  6.0    0.001    0.001   10.227   10.227
 calculate_dm_sparse                 62  7.0    0.000    0.000    9.124    9.124
 cp_dbcsr_plus_fm_fm_t_native        65  7.9    0.001    0.001    9.071    9.071
 rebuild_ks_matrix                   63  6.9    0.000    0.000    8.381    8.381
 qs_ks_build_kohn_sham_matrix        63  7.9    0.012    0.012    8.380    8.380
 qs_ks_update_qs_env                 60  6.0    0.001    0.001    8.190    8.190
 dbcsr_multiply_generic              66  8.9    0.129    0.129    7.271    7.271
 qs_vxc_create                       63  8.9    0.001    0.001    5.586    5.586
 xc_vxc_pw_create                    63  9.9    0.556    0.556    5.585    5.585
 make_m2s                           132  9.9    0.001    0.001    4.034    4.034
 dbcsr_create_new                  1212 10.3    2.244    2.244    3.755    3.755
 xc_pw_derive                       378 11.9    0.001    0.001    2.988    2.988
 xc_rho_set_and_dset_create          63 10.9    0.214    0.214    2.889    2.889
 -------------------------------------------------------------------------------

 The number of warnings for this run is : 4
 
 -------------------------------------------------------------------------------
  **** **** ******  **  PROGRAM ENDED AT                 2025-10-22 19:22:35.992
 ***** ** ***  *** **   PROGRAM RAN ON                           badwlrz-cl18014
 **    ****   ******    PROGRAM RAN BY                                   di97gef
 ***** **    ** ** **   PROGRAM PROCESS ID                                192194
  **** **  *******  **  PROGRAM STOPPED IN /home/di97gef/Documents/lrz/work/biop
                                           hy_course/jupyternbs_mol_modeling_ai/
                                           final_notebooks/CP2K-DFT
